{
  "Basic Math": [
    "2 + 2 = ?|3,4,5,6|4",
    "5 x 3 = ?|10,15,20,25|15",
    "9 - 4 = ?|3,4,5,6|5",
    "8 / 2 = ?|2,3,4,5|4",
    "7 + 6 = ?|11,12,13,14|13",
    "15 - 7 = ?|6,7,8,9|8",
    "3 x 3 = ?|6,7,8,9|9",
    "12 / 3 = ?|2,3,4,5|4",
    "6 + 9 = ?|14,15,16,17|15",
    "18 - 5 = ?|12,13,14,15|13",
    "4 x 7 = ?|24,28,32,36|28",
    "20 / 4 = ?|4,5,6,7|5",
    "11 + 14 = ?|24,25,26,27|25",
    "22 - 9 = ?|12,13,14,15|13",
    "5 x 5 = ?|20,25,30,35|25",
    "30 / 6 = ?|4,5,6,7|5",
    "13 + 16 = ?|28,29,30,31|29",
    "21 - 8 = ?|12,13,14,15|13",
    "7 x 4 = ?|24,25,26,28|28",
    "24 / 8 = ?|2,3,4,5|3",
    "9 + 15 = ?|22,23,24,25|24",
    "27 - 12 = ?|13,14,15,16|15",
    "8 x 6 = ?|42,44,46,48|48",
    "36 / 9 = ?|3,4,5,6|4",
    "14 + 7 = ?|20,21,22,23|21",
    "28 - 10 = ?|17,18,19,20|18",
    "4 x 9 = ?|32,36,40,44|36",
    "32 / 4 = ?|7,8,9,10|8",
    "15 + 25 = ?|39,40,41,42|40",
    "45 - 20 = ?|22,23,24,25|25",
    "5 x 8 = ?|38,40,42,44|40",
    "48 / 6 = ?|7,8,9,10|8",
    "12 + 17 = ?|28,29,30,31|29",
    "39 - 18 = ?|19,20,21,22|21",
    "3 x 11 = ?|31,32,33,34|33",
    "54 / 9 = ?|5,6,7,8|6",
    "8 + 24 = ?|30,31,32,33|32",
    "60 - 25 = ?|33,34,35,36|35",
    "7 x 5 = ?|32,33,34,35|35",
    "72 / 8 = ?|8,9,10,11|9",
    "16 + 19 = ?|34,35,36,37|35",
    "81 - 33 = ?|47,48,49,50|48",
    "6 x 9 = ?|52,53,54,55|54",
    "90 / 10 = ?|8,9,10,11|9",
    "23 + 14 = ?|35,36,37,38|37",
    "96 - 42 = ?|52,53,54,55|54",
    "7 x 8 = ?|54,55,56,57|56",
    "105 / 7 = ?|13,14,15,16|15",
    "18 + 27 = ?|44,45,46,47|45",
    "120 - 50 = ?|69,70,71,72|70",
    "10 + 10 = ?|18,19,20,21|20",
    "30 - 15 = ?|13,14,15,16|15",
    "5 x 4 = ?|18,19,20,21|20",
    "40 / 5 = ?|7,8,9,10|8",
    "17 + 12 = ?|27,28,29,30|29",
    "50 - 25 = ?|23,24,25,26|25",
    "6 x 7 = ?|40,41,42,43|42",
    "63 / 7 = ?|8,9,10,11|9",
    "25 + 15 = ?|38,39,40,41|40",
    "75 - 30 = ?|43,44,45,46|45",
    "8 x 8 = ?|62,63,64,65|64",
    "80 / 8 = ?|9,10,11,12|10"
  ],
  "World Capitals": [
    "Capital of France|London,Berlin,Paris,Madrid|Paris",
    "Capital of Japan|Beijing,Tokyo,Seoul,Bangkok|Tokyo",
    "Capital of Brazil|Rio de Janeiro,Sao Paulo,Brasilia,Buenos Aires|Brasilia",
    "Capital of Canada|Toronto,Vancouver,Ottawa,Montreal|Ottawa",
    "Capital of Australia|Sydney,Canberra,Melbourne,Brisbane|Canberra",
    "Capital of Italy|Rome,Venice,Florence,Milan|Rome",
    "Capital of India|Mumbai,Delhi,Kolkata,Chennai|Delhi",
    "Capital of Germany|Berlin,Munich,Hamburg,Cologne|Berlin",
    "Capital of China|Beijing,Shanghai,Guangzhou,Shenzhen|Beijing",
    "Capital of Russia|Moscow,St. Petersburg,Novosibirsk,Ekaterinburg|Moscow",
    "Capital of Egypt|Cairo,Alexandria,Aswan,Luxor|Cairo",
    "Capital of South Africa|Cape Town,Durban,Johannesburg,Bloemfontein|Pretoria",
    "Capital of Mexico|Mexico City,Guadalajara,Monterrey,Puebla|Mexico City",
    "Capital of Argentina|Buenos Aires,Montevideo,Santiago,Lima|Buenos Aires",
    "Capital of Spain|Madrid,Barcelona,Seville,Valencia|Madrid",
    "Capital of Netherlands|Amsterdam,Rotterdam,Utrecht,The Hague|Amsterdam",
    "Capital of Sweden|Stockholm,Goteborg,Malmö,Uppsala|Stockholm",
    "Capital of Norway|Oslo,Bergen,Stavanger,Trondheim|Oslo",
    "Capital of Finland|Helsinki,Espoo,Tampere,Vantaa|Helsinki",
    "Capital of Denmark|Copenhagen,Odense,Aarhus,Esbjerg|Copenhagen",
    "Capital of Austria|Vienna,Salzburg,Innsbruck,Graz|Vienna",
    "Capital of Brazil|Brasília,Rio de Janeiro,São Paulo,Salvador|Brasília",
    "Capital of Australia|Canberra,Sydney,Melbourne,Brisbane|Canberra",
    "Capital of Egypt|Cairo,Alexandria,Giza,Luxor|Cairo",
    "Capital of South Africa|Pretoria,Cape Town,Johannesburg,Durban|Pretoria",
    "Capital of Switzerland|Zurich,Geneva,Bern,Basel|Bern",
    "Capital of Belgium|Brussels,Antwerp,Ghent,Liege|Brussels",
    "Capital of Portugal|Lisbon,Porto,Coimbra,Braga|Lisbon",
    "Capital of Greece|Athens,Thessaloniki,Patras,Heraklion|Athens",
    "Capital of Turkey|Ankara,Istanbul,Izmir,Antalya|Ankara",
    "Capital of Iran|Tehran,Shiraz,Isfahan,Tabriz|Tehran",
    "Capital of Saudi Arabia|Riyadh,Jeddah,Dammam,Mecca|Riyadh",
    "Capital of United Arab Emirates|Abu Dhabi,Dubai,Sharjah,Ajman|Abu Dhabi",
    "Capital of Israel|Jerusalem,Tel Aviv,Haifa,Eilat|Jerusalem",
    "Capital of Jordan|Amman,Jerash,Aqaba,Madaba|Amman",
    "Capital of Lebanon|Beirut,Tripoli,Saida,Jounieh|Beirut",
    "Capital of Qatar|Doha,Al Khor,Al Rayyan,Al Wakrah|Doha",
    "Capital of Kuwait|Kuwait City,Ahmadi,Fahaheel,Jahra|Kuwait City",
    "Capital of Bahrain|Manama,Al Muharraq,Riffa,Sitra|Manama",
    "Capital of Oman|Muscat,Salalah,Sur,Nizwa|Muscat",
    "Capital of Yemen|Sana'a,Aden,Taiz,Al Hudaydah|Sana'a",
    "Capital of Syria|Damascus,Aleppo,Homs,Lattakia|Damascus",
    "Capital of Iraq|Baghdad,Erbil,Basra,Najaf|Baghdad",
    "Capital of Afghanistan|Kabul,Herat,Mazar-i-Sharif,Jalalabad|Kabul",
    "Capital of Pakistan|Islamabad,Karachi,Lahore,Rawalpindi|Islamabad",
    "Capital of Nepal|Kathmandu,Pokhara,Biratnagar,Lalitpur|Kathmandu",
    "Capital of Sri Lanka|Colombo,Negombo,Kandy,Galle|Sri Jayawardenepura Kotte",
    "Capital of Maldives|Malé,Thulusdhoo,Fuvahmulah,Addu City|Malé",
    "Capital of Bangladesh|Dhaka,Chittagong,Khulna,Rajshahi|Dhaka",
    "Capital of Thailand|Bangkok,Chiang Mai,Phuket,Pattaya|Bangkok",
    "Capital of Malaysia|Kuala Lumpur,Penang,Johor Bahru,Ipoh|Kuala Lumpur",
    "Capital of Singapore|Singapore,Jurong,Tampines,Woodlands|Singapore",
    "Capital of Philippines|Manila,Cebu,Davao,Quezon City|Manila",
    "Capital of Indonesia|Jakarta,Surabaya,Bandung,Bekasi|Jakarta",
    "Capital of Vietnam|Hanoi,Ho Chi Minh City,Da Nang,Hai Phong|Hanoi",
    "Capital of South Korea|Seoul,Busan,Incheon,Daegu|Seoul",
    "Capital of North Korea|Pyongyang,Hamhung,Nampo,Wonsan|Pyongyang",
    "Capital of Mongolia|Ulaanbaatar,Erdenet,Darkhan,Choibalsan|Ulaanbaatar",
    "Capital of Kazakhstan|Nur-Sultan,Almaty,Shymkent,Karaganda|Nur-Sultan",
    "Capital of Uzbekistan|Tashkent,Samarkand,Namangan,Andijan|Tashkent",
    "Capital of Kyrgyzstan|Bishkek,Osh,Jalal-Abad,Karakol|Bishkek",
    "Capital of Tajikistan|Dushanbe,Khujand,Kulob,Qurghonteppa|Dushanbe",
    "Capital of Turkmenistan|Ashgabat,Turkmenabat,Dashoguz,Mary|Ashgabat",
    "Capital of Azerbaijan|Baku,Ganja,Sumqayit,Lankaran|Baku",
    "Capital of Georgia|Tbilisi,Kutaisi,Batumi,Rustavi|Tbilisi",
    "Capital of Armenia|Yerevan,Gyumri,Vanadzor,Vagharshapat|Yerevan",
    "Capital of Cyprus|Nicosia,Limassol,Larnaca,Famagusta|Nicosia",
    "Capital of Lebanon|Beirut,Tripoli,Saida,Jounieh|Beirut",
    "Capital of Jordan|Amman,Jerash,Aqaba,Madaba|Amman",
    "Capital of Israel|Jerusalem,Tel Aviv,Haifa,Eilat|Jerusalem",
    "Capital of Palestine|Ramallah,Gaza,Hebron,Nablus|Ramallah",
    "Capital of Syria|Damascus,Aleppo,Homs,Lattakia|Damascus",
    "Capital of Iraq|Baghdad,Erbil,Basra,Najaf|Baghdad",
    "Capital of Kuwait|Kuwait City,Ahmadi,Fahaheel,Jahra|Kuwait City",
    "Capital of Saudi Arabia|Riyadh,Jeddah,Dammam,Mecca|Riyadh",
    "Capital of Yemen|Sana'a,Aden,Taiz,Al Hudaydah|Sana'a",
    "Capital of Oman|Muscat,Salalah,Sur,Nizwa|Muscat",
    "Capital of United Arab Emirates|Abu Dhabi,Dubai,Sharjah,Ajman|Abu Dhabi",
    "Capital of Qatar|Doha,Al Khor,Al Rayyan,Al Wakrah|Doha",
    "Capital of Bahrain|Manama,Al Muharraq,Riffa,Sitra|Manama",
    "Capital of Iran|Tehran,Shiraz,Isfahan,Tabriz|Tehran",
    "Capital of Turkey|Ankara,Istanbul,Izmir,Antalya|Ankara",
    "Capital of Greece|Athens,Thessaloniki,Patras,Heraklion|Athens",
    "Capital of Bulgaria|Sofia,Plovdiv,Varna,Burgas|Sofia",
    "Capital of Romania|Bucharest,Cluj-Napoca,Timisoara,Iasi|Bucharest",
    "Capital of Hungary|Budapest,Debrecen,Szeged,Miskolc|Budapest",
    "Capital of Poland|Warsaw,Krakow,Lodz,Wroclaw|Warsaw",
    "Capital of Czech Republic|Prague,Brno,Ostrava,Pilsen|Prague",
    "Capital of Slovakia|Bratislava,Kosice,Presov,Zilina|Bratislava",
    "Capital of Ukraine|Kyiv,Kharkiv,Odessa,Dnipro|Kyiv",
    "Capital of Belarus|Minsk,Gomel,Mogilev,Vitebsk|Minsk",
    "Capital of Moldova|Chisinau,Tiraspol,Balti,Bender|Chisinau",
    "Capital of Lithuania|Vilnius,Kaunas,Klaipeda,Siauliai|Vilnius",
    "Capital of Latvia|Riga,Daugavpils,Liepaja,Jelgava|Riga",
    "Capital of Estonia|Tallinn,Tartu,Narva,Parnu|Tallinn",
    "Capital of Finland|Helsinki,Espoo,Tampere,Vantaa|Helsinki",
    "Capital of Sweden|Stockholm,Goteborg,Malmö,Uppsala|Stockholm",
    "Capital of Norway|Oslo,Bergen,Stavanger,Trondheim|Oslo",
    "Capital of Denmark|Copenhagen,Odense,Aarhus,Esbjerg|Copenhagen",
    "Capital of Iceland|Reykjavik,Akureyri,Kopavogur,Hafnarfjordur|Reykjavik"
  ],
  "Science Facts": [
    "Largest planet in our solar system|Mars,Jupiter,Saturn,Earth|Jupiter",
    "Chemical symbol for gold|Au,Ag,Fe,Cu|Au",
    "Number of bones in adult human body|206,186,226,246|206",
    "Speed of light in vacuum (m/s)|299792458,300000000,150000000,350000000|299792458",
    "Chemical formula for water|H2O,CO2,NaCl,CH4|H2O",
    "Human body's largest organ|Heart,Liver,Stomach,Skin|Skin",
    "Number of planets in our solar system|8,9,7,10|8",
    "Earth's atmosphere is composed mainly of|Oxygen,Carbon Dioxide,Nitrogen,Hydrogen|Nitrogen",
    "Most abundant element in the universe|Hydrogen,Helium,Oxygen,Carbon|Hydrogen",
    "Distance from Earth to the Moon (in km)|384400,150000,300000,400000|384400",
    "Number of chromosomes in human cells|23,46,48,44|46",
    "Light travels faster than sound. True or False?|True,False|True",
    "Mammals are warm-blooded. True or False?|True,False|True",
    "The human brain is 75% water. True or False?|True,False|True",
    "A group of cells working together to perform a specific function is called|Tissue,Organ,Organ System,Cell|Tissue",
    "The study of plants is known as|Botany,Zoology,Geology,Astrology|Botany",
    "The chemical element with the symbol Fe is|Iron,Gold,Silver,Lead|Iron",
    "The boiling point of water is|100°C,0°C,50°C,25°C|100°C",
    "The smallest unit of life is|Cell,Tissue,Organ,System|Cell",
    "The process by which plants make their food|Photosynthesis,Respiration,Digestion,Transpiration|Photosynthesis",
    "The human skeleton is made up of how many bones at birth?|206,300,250,150|300",
    "The chemical formula for table salt is|NaCl,KCl,NaHCO3,Fe2O3|NaCl",
    "What is the most common gas in Earth's atmosphere?|Nitrogen,Oxygen,Carbon Dioxide,Argon|Nitrogen",
    "The sun is a type of|Planet,Star,Asteroid,Comet|Star",
    "The heart has how many chambers?|2,3,4,5|4",
    "The number of senses humans have traditionally been classified as|5,6,7,8|5",
    "The chemical symbol for oxygen is|O,H,Cl,Br|O",
    "What is the primary source of energy for Earth?|Sun,Wind,Geothermal,Coal|Sun",
    "The Earth orbits around the|Sun,Moon,Mars,Jupiter|Sun",
    "The Earth's core is mostly made of|Iron,Nickel,Silicon,Carbon|Iron",
    "What is the chemical symbol for silver?|Ag,Au,Fe,Cu|Ag",
    "The study of the weather is known as|Meteorology,Geology,Oceanography,Climatology|Meteorology",
    "Water boils at what temperature in Fahrenheit?|212°F,100°F,32°F,150°F|212°F",
    "The human body is composed of approximately what percentage of water?|60%,50%,70%,80%|60%",
    "The Earth's crust is divided into|Continents,Plates,Layers,Zones|Plates",
    "What is the chemical symbol for sodium?|Na,Cl,K,Ca|Na",
    "The speed of sound in air at 20°C is approximately|343 m/s,300 m/s,350 m/s,400 m/s|343 m/s",
    "The smallest bone in the human body is located in the|Ear,Hand,Foot,Leg|Ear",
    "The process of cell division is called|Mitosis,Meiosis,Respiration,Photosynthesis|Mitosis",
    "The chemical symbol for carbon is|C,N,O,H|C",
    "A solution with a pH less than 7 is considered|Acidic,Neutral,Basic,Alkaline|Acidic",
    "The first law of thermodynamics is also known as|Law of Energy Conservation,Law of Entropy,Law of Motion,Law of Gravitation|Law of Energy Conservation",
    "What is the chemical symbol for potassium?|K,Na,Cl,Br|K",
    "The most abundant gas in the Earth's atmosphere is|Nitrogen,Oxygen,Carbon Dioxide,Argon|Nitrogen",
    "Atomic number of carbon|6,8,12,14|6",
    "First element on the periodic table|Hydrogen,Helium,Lithium,Oxygen|Hydrogen",
    "Acceleration due to gravity on Earth (m/s²)|9.8,8.9,10.2,11.1|9.8",
    "Most common gas in Earth's atmosphere|Nitrogen,Oxygen,Carbon Dioxide,Argon|Nitrogen",
    "pH level of pure water|7,6,8,5|7",
    "Smallest unit of life|Cell,Atom,Molecule,Organ|Cell"
  ]
}
